,smiles,sf,D(Am),D(Eu),C(NaNO3),C(HNO3),C(NaClO4),C(Eu(NaNO3)),C(lig),pH,Solvent,Solven_Epsilon,Surface_tension,paper,eg,conf_std,esp,pKa,paper_short,paper_full,preorg_energy
69,C1C(P(C(O)(C)C)(C2C=CC=CC=2)=O)=NC(P(C(O)(C)C)(C2C=CC=CC=2)=O)=CC=1,2,0.045,0.027,0,3,0,0,0.01,,Nitrobenzene,34.82,43.9,https://doi.org/10.1016/j.molliq.2020.115098,-2.34765,0.0034064170296604,-3.35,5.264068,"A. Mitrofanov et al., Jour. Mol. Liq., 325 (1), 2021 [17]","A. Mitrofanov et al., [18]",-0.190501034395993
70,C1C(P(CCCCCCCC)=O)=NC(P(C2C=CC=CC=2)=O)=CC=1,8,42,5,0,3,0,0,0.01,,Nitrobenzene,34.82,43.9,https://doi.org/10.1016/j.molliq.2020.115098,-2.76825,0.0056600768566734,-3.13,2.600499,"A. Mitrofanov et al., Jour. Mol. Liq., 325 (1), 2021 [17]","A. Mitrofanov et al., [18]",-0.107971525495032
71,C1C(P(CCCCCCCC)=O)=NC(P=O)=CC=1,5,9.5,1.8,0,3,0,0,0.01,,Nitrobenzene,34.82,43.9,https://doi.org/10.1016/j.molliq.2020.115098,-2.195,0.0082247537713883,-2.71,2.5612838,"A. Mitrofanov et al., Jour. Mol. Liq., 325 (1), 2021 [17]","A. Mitrofanov et al., [18]",-0.0993962129039118
72,C1C(P(C(O)(C)C)=O)=NC(P=O)=CC=1,1,0.002,0.002,0,3,0,0,0.01,,Nitrobenzene,34.82,43.9,https://doi.org/10.1016/j.molliq.2020.115098,-1.8404,0.0079997949332834,-2.78,2.8717287,"A. Mitrofanov et al., Jour. Mol. Liq., 325 (1), 2021 [17]","A. Mitrofanov et al., [18]",-0.111673138344941
73,C1C(P(C2CCCCC2)=O)=NC(P=O)=CC=1,2,0.008,0.005,0,3,0,0,0.01,,Nitrobenzene,34.82,43.9,https://doi.org/10.1016/j.molliq.2020.115098,-1.83395,0.0083919621839976,-2.78,2.0809023,"A. Mitrofanov et al., Jour. Mol. Liq., 325 (1), 2021 [17]","A. Mitrofanov et al., [18]",-0.098469961552837
74,C1C(P(C2C=C(C)C=C(C)C=2)=O)=NC(P(C2C=CC=CC=2)=O)=CC=1,25,159,6,0,3,0,0,0.01,,Nitrobenzene,34.82,43.9,https://doi.org/10.1016/j.molliq.2020.115098,-2.4778,0.0050929681955911,-2.95,-1.517108,"A. Mitrofanov et al., Jour. Mol. Liq., 325 (1), 2021 [17]","A. Mitrofanov et al., [18]",-0.137112086337083
75,C1C(P(=O)(CC2C=C(O)C=CC=2)CC2C=CC=C(O)C=2)=NC(C(=O)N(CC)C2C=CC=CC=2)=CC=1,4,0.2,0.1,0,3,0,0,0.01,,Nitrobenzene,34.82,43.9,https://doi.org/10.1016/j.molliq.2020.115098,-2.14745,0.0043691245579514,-3,2.0419748,"A. Mitrofanov et al., Jour. Mol. Liq., 325 (1), 2021 [17]","A. Mitrofanov et al., [18]",-0.110500320138044
76,C1C(P(=O)(C2C=C(C)C=C(C)C=2)C2C=C(C)C=C(C)C=2)=NC(C(=O)N(CC)C2C=CC=CC=2)=CC=1,2,4.2,1.8,0,3,0,0,0.01,,Nitrobenzene,34.82,43.9,https://doi.org/10.1016/j.molliq.2020.115098,-2.34565,0.0017947009403544,-3.17,1.5077991,"A. Mitrofanov et al., Jour. Mol. Liq., 325 (1), 2021 [17]","A. Mitrofanov et al., [18]",-0.079514509792034
77,C1C(P(=O)(C2C=CC=CC=2)C2C=CC=CC=2)=NC(C(=O)N(CC)C2C=CC=CC=2)=CC=1,4,0.8,0.2,0,3,0,0,0.01,,Nitrobenzene,34.82,43.9,https://doi.org/10.1016/j.molliq.2020.115098,-2.35385,0.0011163245900955,-3.13,0.8158984,"A. Mitrofanov et al., Jour. Mol. Liq., 325 (1), 2021 [17]","A. Mitrofanov et al., [18]",-0.114010752691911